
data_JUC-596

_audit_creation_method RASPA-1.0
_audit_creation_date 2022-6-6
_audit_author_name 'By Student'

_citation_author_name        'Chengyang Yu, Hui Li, Yujie Wang, et al.,''
_citation_title              'Three-Dimensional Triptycene-Functionalized Covalent Organic Frameworks with hea Net for Hydrogen Adsorption'
_citation_journal_abbrev     'Angew. Chem. Int.'
_citation_journal_volume     0000
_citation_journal_number     0000
_citation_page_first         e202117101
_citation_page_last          e202117106
_citation_year               2022

_cell_length_a                         54.18410
_cell_length_b                         54.18410
_cell_length_c                         49.09140
_cell_angle_alpha                      90
_cell_angle_beta                       90
_cell_angle_gamma                      120
_cell_volume                           124.818

_symmetry_cell_setting                 Trigonal
_symmetry_space_group_name_Hall        'R 3 2'
_symmetry_space_group_name_H-M         'R 3 2'
_symmetry_Int_Tables_number            155


loop_
_space_group_symop_operation_xyz
   'x, y, z'
   '-y, x-y, z'
   '-x+y, -x, z'
   'y, x, -z'
   'x-y, -y, -z'
   '-x, -x+y, -z'
   'x+2/3, y+1/3, z+1/3'
   '-y+2/3, x-y+1/3, z+1/3'
   '-x+y+2/3, -x+1/3, z+1/3'
   'y+2/3, x+1/3, -z+1/3'
   'x-y+2/3, -y+1/3, -z+1/3'
   '-x+2/3, -x+y+1/3, -z+1/3'
   'x+1/3, y+2/3, z+2/3'
   '-y+1/3, x-y+2/3, z+2/3'
   '-x+y+1/3, -x+2/3, z+2/3'
   'y+1/3, x+2/3, -z+2/3'
   'x-y+1/3, -y+2/3, -z+2/3'
   '-x+1/3, -x+y+2/3, -z+2/3'

loop_
_atom_site_label
_atom_site_type_symbol
_atom_site_fract_x
_atom_site_fract_y
_atom_site_fract_z
_atom_site_charge
C1     C     0.33086     0.63976     0.38778     0
C2     C     0.32872     0.61641     0.37368     0
C3     C     0.32667     0.59313     0.38842     0
C4     C     0.34578     0.57037     0.35724     0
C5     C     0.32346     0.56807     0.37349     0
C6     C     0.29935     0.54124     0.37785     0
C7     C     0.29833     0.51676     0.36749     0
C8     C     0.32152     0.51879     0.35290     0
C9     C     0.34494     0.54585     0.34716     0
C10    C     0.32198     0.49252     0.34621     0
C11    C     0.37552     0.47451     0.32435     0
C12    C     0.35023     0.46984     0.33662     0
C13    C     0.33149     0.44283     0.34771     0
C14    C     0.33813     0.42106     0.34645     0
C15    C     0.36359     0.42582     0.33429     0
C16    C     0.38222     0.45275     0.32304     0
C17    C     0.38507     0.35912     0.33364     0
C18    C     0.35689     0.42491     0.62618     0
C19    C     0.33255     0.40728     0.64202     0
C20    C     0.30746     0.40832     0.63684     0
C21    C     0.30602     0.42444     0.61542     0
C22    C     0.32996     0.44094     0.59909     0
C23    C     0.35543     0.44111     0.60474     0
C24    C     0.31580     0.47511     0.58002     0
C25    C     0.32839     0.45807     0.57634     0
C26    C     0.33922     0.45719     0.55057     0
C27    C     0.33738     0.47287     0.52883     0
C28    C     0.32480     0.48991     0.53261     0
C29    C     0.31393     0.49067     0.55825     0
C30    C     0.33587     0.51337     0.48809     0
C31    C     0.32789     0.57111     0.43391     0
C32    C     0.32744     0.59381     0.41744     0
C33    C     0.32922     0.61729     0.43132     0
C34    C     0.33088     0.63995     0.41666     0
C35    C     0.30846     0.55833     0.45536     0
C36    C     0.31048     0.53896     0.47265     0
C37    C     0.33201     0.53202     0.46876     0
C38    C     0.34902     0.56372     0.42964     0
C39    C     0.35089     0.54414     0.44680     0
C40    C     0.36523     0.37437     0.64264     0
C41    C     0.38702     0.36775     0.64236     0
C42    C     0.40284     0.3708      0.66600     0
C43    C     0.39608     0.38005     0.69004     0
C44    C     0.37429     0.38667     0.69036     0
C45    C     0.33333     0.38993     0.66666     0
C46    C     0.33333     0.66666     0.95841     0
C47    C     0.33333     0.66666     0.90399     0
N1     N     0.34577     0.49368     0.33967     0
N2     N     0.32234     0.50660     0.51118     0
F1     F     0.40744     0.45844     0.31187     0
F2     F     0.50470     0.36071     0.27147     0
H1     H     0.32838     0.61619     0.35162     0
H2     H     0.36454     0.59097     0.35374     0
H3     H     0.28191     0.53919     0.39030     0
H4     H     0.28006     0.49614     0.37209     0
H5     H     0.36303     0.54800     0.33577     0
H6     H     0.30263     0.47229     0.34897     0
H7     H     0.39039     0.49535     0.31624     0
H8     H     0.31218     0.43850     0.35814     0
H9     H     0.32342     0.40049     0.35520     0
H10    H     0.37731     0.42679     0.63053     0
H11    H     0.28869     0.39624     0.64932     0
H12    H     0.28606     0.42384     0.61151     0
H13    H     0.37443     0.45431     0.59289     0
H14    H     0.34869     0.44395     0.54715     0
H15    H     0.34540     0.47113     0.50920     0
H16    H     0.30424     0.50375     0.56141     0
H17    H     0.35152     0.50715     0.48345     0
H18    H     0.32999     0.61824     0.45337     0
H19    H     0.29202     0.56375     0.45900     0
H20    H     0.29549     0.52981     0.48932     0
H21    H     0.36460     0.57376     0.41357     0
H22    H     0.36770     0.53917     0.44345     0
H23    H     0.35300     0.37110     0.62420     0
H24    H     0.39155     0.36024     0.62360     0
H25    H     0.40719     0.38143     0.70883     0
H26    H     0.36897     0.39227     0.70975     0
H27    H     0.33333     0.66666     0.98105     0
H28    H     0.33333     0.66666     0.88134     0
