
data_JUC-596

_audit_creation_method RASPA-1.0
_audit_creation_date 2022-6-6
_audit_author_name 'By Student'

_citation_author_name        'Chengyang Yu, Hui Li, Yujie Wang, et al.,''
_citation_title              'Three-Dimensional Triptycene-Functionalized Covalent Organic Frameworks with hea Net for Hydrogen Adsorption'
_citation_journal_abbrev     'Angew. Chem. Int.'
_citation_journal_volume     0000
_citation_journal_number     0000
_citation_page_first         e202117101
_citation_page_last          e202117106
_citation_year               2022

_cell_length_a                         54.13990
_cell_length_b                         54.13990
_cell_length_c                         49.10370
_cell_angle_alpha                      90
_cell_angle_beta                       90
_cell_angle_gamma                      120
_cell_volume                           124.646

_symmetry_cell_setting                 Trigonal
_symmetry_space_group_name_Hall        'R 3 2'
_symmetry_space_group_name_H-M         'R 3 2'
_symmetry_Int_Tables_number            155


loop_
_space_group_symop_operation_xyz
   'x, y, z'
   '-y, x-y, z'
   '-x+y, -x, z'
   'y, x, -z'
   'x-y, -y, -z'
   '-x, -x+y, -z'
   'x+2/3, y+1/3, z+1/3'
   '-y+2/3, x-y+1/3, z+1/3'
   '-x+y+2/3, -x+1/3, z+1/3'
   'y+2/3, x+1/3, -z+1/3'
   'x-y+2/3, -y+1/3, -z+1/3'
   '-x+2/3, -x+y+1/3, -z+1/3'
   'x+1/3, y+2/3, z+2/3'
   '-y+1/3, x-y+2/3, z+2/3'
   '-x+y+1/3, -x+2/3, z+2/3'
   'y+1/3, x+2/3, -z+2/3'
   'x-y+1/3, -y+2/3, -z+2/3'
   '-x+1/3, -x+y+2/3, -z+2/3'

loop_
_atom_site_label
_atom_site_type_symbol
_atom_site_fract_x
_atom_site_fract_y
_atom_site_fract_z
_atom_site_charge
C1     C     0.33085     0.63973     0.38709     0
C2     C     0.32869     0.61635     0.37300     0
C3     C     0.32664     0.59306     0.38772     0
C4     C     0.34559     0.57015     0.35651     0
C5     C     0.32333     0.56793     0.37280     0
C6     C     0.29918     0.54112     0.37723     0
C7     C     0.29802     0.51653     0.36695     0
C8     C     0.32124     0.51847     0.35231     0
C9     C     0.34466     0.54555     0.34648     0
C10     C     0.32188     0.49226     0.34554     0
N11     N     0.34585     0.49356     0.33943     0
C12     C     0.37592     0.47461     0.32438     0
C13     C     0.35043     0.46978     0.33637     0
C14     C     0.33160     0.44265     0.34723     0
C15     C     0.33832     0.42093     0.34602     0
C16     C     0.36397     0.42584     0.33413     0
C17     C     0.38271     0.45290     0.32312     0
C18     C     0.38556     0.35915     0.33359     0
C19     C     0.35693     0.42524     0.62603     0
C20     C     0.33262     0.40781     0.64201     0
C21     C     0.30759     0.40904     0.63689     0
C22     C     0.30618     0.42513     0.61541     0
C23     C     0.33008     0.44139     0.59894     0
C24     C     0.35550     0.44140     0.60453     0
C25     C     0.31618     0.47573     0.57966     0
C26     C     0.32852     0.45843     0.57608     0
C27     C     0.33913     0.45722     0.55029     0
C28     C     0.33733     0.47283     0.52846     0
C29     C     0.32502     0.49015     0.53215     0
C30     C     0.31435     0.49124     0.55780     0
N31     N     0.32267     0.50683     0.51062     0
C32     C     0.33601     0.51324     0.48743     0
C33     C     0.32799     0.57108     0.43320     0
C34     C     0.32746     0.59376     0.41673     0
C35     C     0.32925     0.61727     0.43061     0
C36     C     0.33088     0.63993     0.41594     0
C37     C     0.30867     0.55832     0.45472     0
C38     C     0.31077     0.53896     0.47195     0
C39     C     0.33228     0.53196     0.46798     0
C40     C     0.34910     0.56367     0.42882     0
C41     C     0.35110     0.54407     0.44589     0
C42     C     0.36514     0.37464     0.64278     0
C43     C     0.38694     0.36799     0.64253     0
C44     C     0.40289     0.37127     0.66611     0
C45     C     0.39629     0.38079     0.69007     0
C46     C     0.37449     0.38742     0.69036     0
F47     F     0.40810     0.45872     0.31222     0
F48     F     0.50504     0.36011     0.27112     0
F49     F     0.45092     0.84258     0.96054     0
F50     F     0.50096     0.79551     0.89191     0
H51     H     0.32830     0.61612     0.35095     0
H52     H     0.36436     0.59073     0.35293     0
H53     H     0.28178     0.53920     0.38969     0
H54     H     0.36273     0.54768     0.33505     0
H55     H     0.30252     0.47193     0.34780     0
H56     H     0.39086     0.49554     0.31646     0
H57     H     0.31213     0.43821     0.35745     0
H58     H     0.32354     0.40027     0.35458     0
H59     H     0.37733     0.42699     0.63030     0
H60     H     0.28885     0.39711     0.64946     0
H61     H     0.28626     0.42467     0.61156     0
H62     H     0.37448     0.45443     0.59257     0
H63     H     0.34841     0.44378     0.54694     0
H64     H     0.34519     0.47083     0.50884     0
H65     H     0.30487     0.50452     0.56091     0
H66     H     0.35137     0.50664     0.48280     0
H67     H     0.33007     0.61824     0.45264     0
H68     H     0.29223     0.56376     0.45845     0
H69     H     0.29581     0.52983     0.48866     0
H70     H     0.36460     0.57373     0.41267     0
H71     H     0.35280     0.37120     0.62439     0
H72     H     0.39135     0.36029     0.62384     0
H73     H     0.40753     0.38236     0.70882     0
H74     H     0.36930     0.39323     0.70970     0
C75     C     0.33333     0.39042     0.66667     0
C76     C     0.33333     0.66667     0.95910     0
C77     C     0.33333     0.66667     0.90469     0
H78     H     0.33333     0.66667     0.98173     0
H79     H     0.33333     0.66667     0.88205     0
