data_JUC-597_hea_net_exp

_audit_creation_method RASPA-1.0
_audit_creation_date 2022-6-20
_audit_author_name ''

_citation_author_name        'Chengyang Yu, Hui Li, Yujie Wang, et al.,''
_citation_title              'Three-Dimensional Triptycene-Functionalized Covalent Organic Frameworks with hea Net for Hydrogen Adsorption'
_citation_journal_abbrev     'Angew. Chem. Int.'
_citation_journal_volume     0000
_citation_page_first         e202117101
_citation_page_last          e202117106
_citation_year               2022

_cell_length_a    54.1399
_cell_length_b    54.1399
_cell_length_c    49.1037
_cell_angle_alpha 90
_cell_angle_beta  90
_cell_angle_gamma 120
_cell_volume      124646

_symmetry_cell_setting          trigonal
_symmetry_space_group_name_Hall 'R 3 2"'
_symmetry_space_group_name_H-M  'R 3 2'
_symmetry_Int_Tables_number     155

loop_
_symmetry_equiv_pos_as_xyz
 'x,y,z'
 '-y,x-y,z'
 '-x+y,-x,z'
 'y,x,-z'
 'x-y,-y,-z'
 '-x,-x+y,-z'
 'x+2/3,y+1/3,z+1/3'
 '-y+2/3,x-y+1/3,z+1/3'
 '-x+y+2/3,-x+1/3,z+1/3'
 'y+2/3,x+1/3,-z+1/3'
 'x-y+2/3,-y+1/3,-z+1/3'
 '-x+2/3,-x+y+1/3,-z+1/3'
 'x+1/3,y+2/3,z+2/3'
 '-y+1/3,x-y+2/3,z+2/3'
 '-x+y+1/3,-x+2/3,z+2/3'
 'y+1/3,x+2/3,-z+2/3'
 'x-y+1/3,-y+2/3,-z+2/3'
 '-x+1/3,-x+y+2/3,-z+2/3'

loop_
_atom_site_label
_atom_site_type_symbol
_atom_site_fract_x
_atom_site_fract_y
_atom_site_fract_z
_atom_site_charge
C1       C      0.330850000000     0.639730000000     0.387090000000     0.0180919
C2       C      0.328690000000     0.616350000000     0.373000000000    -0.046978
C3       C      0.326640000000     0.593060000000     0.387720000000    -0.0146941
C4       C      0.345590000000     0.570150000000     0.356510000000    -0.100874
C5       C      0.323330000000     0.567930000000     0.372800000000     0.09183
C6       C      0.299180000000     0.541120000000     0.377230000000    -0.192205
C7       C      0.298020000000     0.516530000000     0.366950000000     0.370124
C8       C      0.321240000000     0.518470000000     0.352310000000    -0.124171
C9       C      0.344660000000     0.545550000000     0.346480000000     0.053341
C10      C      0.321880000000     0.492260000000     0.345540000000     0.10502
N11      N      0.345850000000     0.493560000000     0.339430000000    -0.140976
C12      C      0.375920000000     0.474610000000     0.324380000000    -0.22097
C13      C      0.350430000000     0.469780000000     0.336370000000     0.173119
C14      C      0.331600000000     0.442650000000     0.347230000000    -0.130004
C15      C      0.338320000000     0.420930000000     0.346020000000     0.0660329
C16      C      0.363970000000     0.425840000000     0.334130000000    -0.150038
C17      C      0.382710000000     0.452900000000     0.323120000000     0.386511
C18      C      0.385560000000     0.359150000000     0.333590000000     0.00952909
C19      C      0.356930000000     0.425240000000     0.626030000000    -0.0212838
C20      C      0.332620000000     0.407810000000     0.642010000000     0.0123496
C21      C      0.307590000000     0.409040000000     0.636890000000    -0.0184496
C22      C      0.306180000000     0.425130000000     0.615410000000    -0.0521739
C23      C      0.330080000000     0.441390000000     0.598940000000     0.106966
C24      C      0.355500000000     0.441400000000     0.604530000000    -0.0673267
C25      C      0.316180000000     0.475730000000     0.579660000000     0.386998
C26      C      0.328520000000     0.458430000000     0.576080000000    -0.147546
C27      C      0.339130000000     0.457220000000     0.550290000000     0.0648503
C28      C      0.337330000000     0.472830000000     0.528460000000    -0.129054
C29      C      0.325020000000     0.490150000000     0.532150000000     0.171668
C30      C      0.314350000000     0.491240000000     0.557800000000    -0.22027
N31      N      0.322670000000     0.506830000000     0.510620000000    -0.142538
C32      C      0.336010000000     0.513240000000     0.487430000000     0.103751
C33      C      0.327990000000     0.571080000000     0.433200000000     0.0913959
C34      C      0.327460000000     0.593760000000     0.416730000000    -0.0119745
C35      C      0.329250000000     0.617270000000     0.430610000000    -0.049052
C36      C      0.330880000000     0.639930000000     0.415940000000     0.0215009
C37      C      0.308670000000     0.558320000000     0.454720000000    -0.0971448
C38      C      0.310770000000     0.538960000000     0.471950000000     0.0524751
C39      C      0.332280000000     0.531960000000     0.467980000000    -0.123003
C40      C      0.349100000000     0.563670000000     0.428820000000    -0.189456
C41      C      0.351100000000     0.544070000000     0.445890000000     0.369735
C42      C      0.365140000000     0.374640000000     0.642780000000    -0.0209192
C43      C      0.386940000000     0.367990000000     0.642530000000    -0.071438
C44      C      0.402890000000     0.371270000000     0.666110000000     0.106546
C45      C      0.396290000000     0.380790000000     0.690070000000    -0.055151
C46      C      0.374490000000     0.387420000000     0.690360000000    -0.0223663
F47      F      0.408100000000     0.458720000000     0.312220000000    -0.451779
F48      F      0.505040000000     0.360110000000     0.271120000000    -0.445996
F49      F      0.450920000000     0.842580000000     0.960540000000    -0.448081
F50      F      0.500960000000     0.795510000000     0.891910000000    -0.447698
H51      H      0.328300000000     0.616120000000     0.350950000000     0.049881
H52      H      0.364360000000     0.590730000000     0.352930000000     0.0662805
H53      H      0.281780000000     0.539200000000     0.389690000000     0.117805
H54      H      0.362730000000     0.547680000000     0.335050000000     0.0399856
H55      H      0.302520000000     0.471930000000     0.347800000000     0.0474034
H56      H      0.390860000000     0.495540000000     0.316460000000     0.135304
H57      H      0.312130000000     0.438210000000     0.357450000000     0.0828249
H58      H      0.323540000000     0.400270000000     0.354580000000     0.0232485
H59      H      0.377330000000     0.426990000000     0.630300000000     0.0488358
H60      H      0.288850000000     0.397110000000     0.649460000000     0.0539495
H61      H      0.286260000000     0.424670000000     0.611560000000     0.0902285
H62      H      0.374480000000     0.454430000000     0.592570000000     0.0640318
H63      H      0.348410000000     0.443780000000     0.546940000000     0.0237174
H64      H      0.345190000000     0.470830000000     0.508840000000     0.0794868
H65      H      0.304870000000     0.504520000000     0.560910000000     0.136206
H66      H      0.351370000000     0.506640000000     0.482800000000     0.0478508
H67      H      0.330070000000     0.618240000000     0.452640000000     0.0508927
H68      H      0.292230000000     0.563760000000     0.458450000000     0.0663691
H69      H      0.295810000000     0.529830000000     0.488660000000     0.0404932
H70      H      0.364600000000     0.573730000000     0.412670000000     0.116417
H71      H      0.352800000000     0.371200000000     0.624390000000     0.0415127
H72      H      0.391350000000     0.360290000000     0.623840000000     0.0608756
H73      H      0.407530000000     0.382360000000     0.708820000000     0.0837535
H74      H      0.369300000000     0.393230000000     0.709700000000     0.0455696
C75      C      0.333330000000     0.390420000000     0.666670000000    -0.0264128
C76      C      0.333330000000     0.666670000000     0.959100000000    -0.0599373
C77      C      0.333330000000     0.666670000000     0.904690000000    -0.0631928
H78      H      0.333330000000     0.666670000000     0.981730000000     0.0489498
H79      H      0.333330000000     0.666670000000     0.882050000000     0.050229


