data_ZIF-8

_audit_creation_method RASPA-1.0
_audit_creation_date 2011-3-6
_audit_author_name 'David Dubbeldam'

_citation_author_name        'K.S. Park, Z. Ni, A.P. Cote, J.Y. Choi, R.D. Huang, F.J. Uribe-Romo, H.K. Chae, M. OÅfKeeffe, and O.M. Yaghi'
_citation_title              'Exceptional chemical and thermal stability of zeolitic imidazolate frameworks'
_citation_journal_abbrev     'P. Natl. Acad. Sci. USA'
_citation_journal_volume     103
_citation_journal_number     27
_citation_page_first         10186
_citation_page_last          10191
_citation_year               2006

_cell_length_a    16.991
_cell_length_b    16.991
_cell_length_c    16.991
_cell_angle_alpha 90
_cell_angle_beta  90
_cell_angle_gamma 90
_cell_volume      4905.2

_symmetry_cell_setting          cubic
_symmetry_space_group_name_Hall 'P 1'
_symmetry_space_group_name_H-M  'P 1'
_symmetry_Int_Tables_number     1

_symmetry_equiv_pos_as_xyz 'x,y,z'

loop_
_atom_site_label
_atom_site_type_symbol
_atom_site_fract_x
_atom_site_fract_y
_atom_site_fract_z
_atom_site_charge
C1       C      0.37705    0.0079     0.62295    0.216888
C2       C      0.36851    0.89914    0.6875    -0.1146
H2       H      0.3777     0.8589     0.7234     0.14328
C3       C      0.4061     0.0855     0.5939    -0.416193
N1       N      0.40973    0.96832    0.68278   -0.377279
Zn1      Zn     0.5        0          0.75       0.820468
C1       C      0.0079     0.62295    0.37705    0.216742
C2       C      0.89914    0.63149    0.3125    -0.113532
H2       H      0.8589     0.6223     0.2766     0.14333
C3       C      0.0855     0.5939     0.4061    -0.41603
N1       N      0.96832    0.59027    0.31722   -0.376779
Zn1      Zn     0          0.5        0.25       0.820753
C1       C      0.62295    0.9921     0.62295    0.221276
C2       C      0.63149    0.10086    0.6875    -0.111457
H2       H      0.6223     0.1411     0.7234     0.143355
C3       C      0.5939     0.9145     0.5939    -0.41619
H3A      H      0.5413     0.9202     0.5743     0.160367
H3B      H      0.5942     0.8772     0.6364     0.158431
H3C      H      0.6276     0.8961     0.5525     0.164394
N1       N      0.59027    0.03168    0.68278   -0.381257
C1       C      0.9921     0.37705    0.37705    0.221604
C2       C      0.10086    0.36851    0.3125    -0.112769
H2       H      0.1411     0.3777     0.2766     0.14301
C3       C      0.9145     0.4061     0.4061    -0.415864
H3A      H      0.9202     0.4587     0.4257     0.160322
H3B      H      0.8772     0.4058     0.3636     0.158569
H3C      H      0.8961     0.3724     0.4475     0.164367
N1       N      0.03168    0.40973    0.31722   -0.379375
C1       C      0.37705    0.9921     0.37705    0.216705
C2       C      0.36851    0.10086    0.3125    -0.112157
H2       H      0.3777     0.1411     0.2766     0.143652
C3       C      0.4061     0.9145     0.4061    -0.416381
N1       N      0.40973    0.03168    0.31722   -0.378875
Zn1      Zn     0.5        0          0.25       0.820083
C1       C      0.9921     0.62295    0.62295    0.216755
C2       C      0.10086    0.63149    0.6875    -0.11116
H2       H      0.1411     0.6223     0.7234     0.143713
C3       C      0.9145     0.5939     0.5939    -0.416141
N1       N      0.03168    0.59027    0.68278   -0.378412
Zn1      Zn     0          0.5        0.75       0.820368
C1       C      0.62295    0.0079     0.37705    0.221395
C2       C      0.63149    0.89914    0.3125    -0.11145
H2       H      0.6223     0.8589     0.2766     0.14336
C3       C      0.5939     0.0855     0.4061    -0.416193
H3A      H      0.5413     0.0798     0.4257     0.160372
H3B      H      0.5942     0.1228     0.3636     0.158465
H3C      H      0.6276     0.1039     0.4475     0.164357
N1       N      0.59027    0.96832    0.31722   -0.381348
C1       C      0.0079     0.37705    0.62295    0.221532
C2       C      0.89914    0.36851    0.6875    -0.112691
H2       H      0.8589     0.3777     0.7234     0.143002
C3       C      0.0855     0.4061     0.5939    -0.416001
H3A      H      0.0798     0.4587     0.5743     0.160376
H3B      H      0.1228     0.4058     0.6364     0.15859
H3C      H      0.1039     0.3724     0.5525     0.164313
N1       N      0.96832    0.40973    0.68278   -0.379435
C1       C      0.62295    0.37705    0.0079     0.219075
C2       C      0.6875     0.36851    0.89914   -0.112748
H2       H      0.7234     0.3777     0.8589     0.143596
C3       C      0.5939     0.4061     0.0855    -0.416403
N1       N      0.68278    0.40973    0.96832   -0.380562
Zn1      Zn     0.75       0.5        0          0.819797
C1       C      0.37705    0.37705    0.9921     0.219034
C2       C      0.36851    0.3125     0.10086   -0.112173
H2       H      0.3777     0.2766     0.1411     0.1431
C3       C      0.4061     0.4061     0.9145    -0.416346
H3A      H      0.4587     0.4257     0.9202     0.160527
H3B      H      0.4058     0.3636     0.8772     0.158743
H3C      H      0.3724     0.4475     0.8961     0.164292
N1       N      0.40973    0.31722    0.03168   -0.377396
Zn1      Zn     0.5        0.25       0          0.821004
C1       C      0.37705    0.62295    0.0079     0.219202
C2       C      0.3125     0.63149    0.89914   -0.115957
H2       H      0.2766     0.6223     0.8589     0.143135
C3       C      0.4061     0.5939     0.0855    -0.416358
N1       N      0.31722    0.59027    0.96832   -0.379237
Zn1      Zn     0.25       0.5        0          0.820174
C1       C      0.62295    0.62295    0.9921     0.219245
C2       C      0.63149    0.6875     0.10086   -0.11218
H2       H      0.6223     0.7234     0.1411     0.143091
C3       C      0.5939     0.5939     0.9145    -0.416442
H3A      H      0.5413     0.5743     0.9202     0.160494
H3B      H      0.5942     0.6364     0.8772     0.158721
H3C      H      0.6276     0.5525     0.8961     0.164294
N1       N      0.59027    0.68278    0.03168   -0.377713
Zn1      Zn     0.5        0.75       0          0.820678
C2       C      0.6875     0.63149    0.10086   -0.112811
H2       H      0.7234     0.6223     0.1411     0.143594
N1       N      0.68278    0.59027    0.03168   -0.380772
C2       C      0.63149    0.3125     0.89914   -0.112234
H2       H      0.6223     0.2766     0.8589     0.143092
H3A      H      0.5413     0.4257     0.0798     0.160516
H3B      H      0.5942     0.3636     0.1228     0.158716
H3C      H      0.6276     0.4475     0.1039     0.164303
N1       N      0.59027    0.31722    0.96832   -0.377588
C2       C      0.3125     0.36851    0.10086   -0.112744
H2       H      0.2766     0.3777     0.1411     0.143568
N1       N      0.31722    0.40973    0.03168   -0.38054
C2       C      0.36851    0.6875     0.89914   -0.108979
H2       H      0.3777     0.7234     0.8589     0.143528
H3A      H      0.4587     0.5743     0.0798     0.160502
H3B      H      0.4058     0.6364     0.1228     0.158751
H3C      H      0.3724     0.5525     0.1039     0.164258
N1       N      0.40973    0.68278    0.96832   -0.379028
C2       C      0.89914    0.6875     0.36851   -0.111999
H2       H      0.8589     0.7234     0.3777     0.143246
H3A      H      0.0798     0.5743     0.4587     0.160005
H3B      H      0.1228     0.6364     0.4058     0.158869
H3C      H      0.1039     0.5525     0.3724     0.164466
N1       N      0.96832    0.68278    0.40973   -0.377136
Zn1      Zn     0          0.75       0.5        0.82109
C2       C      0.89914    0.3125     0.63149   -0.114138
H2       H      0.8589     0.2766     0.6223     0.143181
N1       N      0.96832    0.31722    0.59027   -0.379102
Zn1      Zn     0          0.25       0.5        0.820356
C2       C      0.3125     0.10086    0.36851   -0.110906
H2       H      0.2766     0.1411     0.3777     0.143502
H3A      H      0.4257     0.9202     0.4587     0.15997
H3B      H      0.3636     0.8772     0.4058     0.158789
H3C      H      0.4475     0.8961     0.3724     0.164526
N1       N      0.31722    0.03168    0.40973   -0.379197
Zn1      Zn     0.25       0          0.5        0.820535
C2       C      0.10086    0.6875     0.63149   -0.113111
H2       H      0.1411     0.7234     0.6223     0.143144
H3A      H      0.9202     0.5743     0.5413     0.159909
H3B      H      0.8772     0.6364     0.5942     0.158888
H3C      H      0.8961     0.5525     0.6276     0.164468
N1       N      0.03168    0.68278    0.59027   -0.377328
C2       C      0.6875     0.89914    0.36851   -0.112938
H2       H      0.7234     0.8589     0.3777     0.143422
N1       N      0.68278    0.96832    0.40973   -0.381052
Zn1      Zn     0.75       0          0.5        0.819679
C2       C      0.10086    0.3125     0.36851   -0.114071
H2       H      0.1411     0.2766     0.3777     0.143174
N1       N      0.03168    0.31722    0.40973   -0.378989
C2       C      0.3125     0.89914    0.63149   -0.109917
H2       H      0.2766     0.8589     0.6223     0.143609
H3A      H      0.4257     0.0798     0.5413     0.160023
H3B      H      0.3636     0.1228     0.5942     0.158879
H3C      H      0.4475     0.1039     0.6276     0.164496
N1       N      0.31722    0.96832    0.59027   -0.379025
C2       C      0.6875     0.10086    0.63149   -0.112749
H2       H      0.7234     0.1411     0.6223     0.143412
N1       N      0.68278    0.03168    0.59027   -0.380923
C1       C      0.87705    0.5079     0.12295    0.219105
C2       C      0.86851    0.39914    0.1875    -0.112236
H2       H      0.8777     0.3589     0.2234     0.1431
C3       C      0.9061     0.5855     0.0939    -0.41615
H3A      H      0.9587     0.5798     0.0743     0.160133
H3B      H      0.9058     0.6228     0.1364     0.158622
H3C      H      0.8724     0.6039     0.0525     0.164538
N1       N      0.90973    0.46832    0.18278   -0.377795
C1       C      0.5079     0.12295    0.87705    0.216818
C2       C      0.39914    0.13149    0.8125    -0.111167
H2       H      0.3589     0.1223     0.7766     0.143662
C3       C      0.5855     0.0939     0.9061    -0.416421
N1       N      0.46832    0.09027    0.81722   -0.378623
C1       C      0.12295    0.4921     0.12295    0.216689
C2       C      0.13149    0.60086    0.1875    -0.110932
H2       H      0.1223     0.6411     0.2234     0.143555
C3       C      0.0939     0.4145     0.0939    -0.416652
H3A      H      0.0413     0.4202     0.0743     0.160393
H3B      H      0.0942     0.3772     0.1364     0.158903
H3C      H      0.1276     0.3961     0.0525     0.16429
N1       N      0.09027    0.53168    0.18278   -0.378986
C1       C      0.4921     0.87705    0.87705    0.219155
C2       C      0.60086    0.86851    0.8125    -0.113601
H2       H      0.6411     0.8777     0.7766     0.14313
C3       C      0.4145     0.9061     0.9061    -0.416095
H3A      H      0.4202     0.9587     0.9257     0.16029
H3B      H      0.3772     0.9058     0.8636     0.158779
H3C      H      0.3961     0.8724     0.9475     0.16435
N1       N      0.53168    0.90973    0.81722   -0.379091
C1       C      0.87705    0.4921     0.87705    0.221375
C2       C      0.86851    0.60086    0.8125    -0.111384
H2       H      0.8777     0.6411     0.7766     0.143394
C3       C      0.9061     0.4145     0.9061    -0.416532
H3A      H      0.9587     0.4202     0.9257     0.160787
H3B      H      0.9058     0.3772     0.8636     0.158552
H3C      H      0.8724     0.3961     0.9475     0.164149
N1       N      0.90973    0.53168    0.81722   -0.381148
C1       C      0.4921     0.12295    0.12295    0.219192
C2       C      0.60086    0.13149    0.1875    -0.114894
H2       H      0.6411     0.1223     0.2234     0.14326
C3       C      0.4145     0.0939     0.0939    -0.41592
N1       N      0.53168    0.09027    0.18278   -0.378823
C1       C      0.12295    0.5079     0.87705    0.21918
C2       C      0.13149    0.39914    0.8125    -0.113749
H2       H      0.1223     0.3589     0.7766     0.143167
C3       C      0.0939     0.5855     0.9061    -0.416239
N1       N      0.09027    0.46832    0.81722   -0.377536
C1       C      0.5079     0.87705    0.12295    0.221507
C2       C      0.39914    0.86851    0.1875    -0.11184
H2       H      0.3589     0.8777     0.2234     0.14344
C3       C      0.5855     0.9061     0.0939    -0.416306
N1       N      0.46832    0.90973    0.18278   -0.380773
C1       C      0.12295    0.87705    0.5079     0.219206
C2       C      0.1875     0.86851    0.39914   -0.114937
H2       H      0.2234     0.8777     0.3589     0.143235
C3       C      0.0939     0.9061     0.5855    -0.416206
N1       N      0.18278    0.90973    0.46832   -0.378817
C1       C      0.87705    0.87705    0.4921     0.219135
C2       C      0.86851    0.8125     0.60086   -0.112418
H2       H      0.8777     0.7766     0.6411     0.143074
C3       C      0.9061     0.9061     0.4145    -0.416376
H3A      H      0.9587     0.9257     0.4202     0.160448
H3B      H      0.9058     0.8636     0.3772     0.158664
H3C      H      0.8724     0.9475     0.3961     0.164405
N1       N      0.90973    0.81722    0.53168   -0.377735
C1       C      0.87705    0.12295    0.5079     0.219068
C2       C      0.8125     0.13149    0.39914   -0.113604
H2       H      0.7766     0.1223     0.3589     0.143544
C3       C      0.9061     0.0939     0.5855    -0.416565
N1       N      0.81722    0.09027    0.46832   -0.380711
C1       C      0.12295    0.12295    0.4921     0.219138
C2       C      0.13149    0.1875     0.60086   -0.108925
H2       H      0.1223     0.2234     0.6411     0.143501
C3       C      0.0939     0.0939     0.4145    -0.416366
H3A      H      0.0413     0.0743     0.4202     0.16056
H3B      H      0.0942     0.1364     0.3772     0.15875
H3C      H      0.1276     0.0525     0.3961     0.1642
N1       N      0.09027    0.18278    0.53168   -0.379161
C2       C      0.1875     0.13149    0.60086   -0.115989
H2       H      0.2234     0.1223     0.6411     0.14318
N1       N      0.18278    0.09027    0.53168   -0.379072
C2       C      0.13149    0.8125     0.39914   -0.11133
H2       H      0.1223     0.7766     0.3589     0.14315
H3A      H      0.0413     0.9257     0.5798     0.16057
H3B      H      0.0942     0.8636     0.6228     0.158778
H3C      H      0.1276     0.9475     0.6039     0.164309
N1       N      0.09027    0.81722    0.46832   -0.377382
C2       C      0.8125     0.86851    0.60086   -0.112582
H2       H      0.7766     0.8777     0.6411     0.143595
N1       N      0.81722    0.90973    0.53168   -0.380446
C2       C      0.86851    0.1875     0.39914   -0.110041
H2       H      0.8777     0.2234     0.3589     0.143422
H3A      H      0.9587     0.0743     0.5798     0.16044
H3B      H      0.9058     0.1364     0.6228     0.158685
H3C      H      0.8724     0.0525     0.6039     0.164272
N1       N      0.90973    0.18278    0.46832   -0.379506
C2       C      0.39914    0.1875     0.86851   -0.113152
H2       H      0.3589     0.2234     0.8777     0.143161
H3A      H      0.5798     0.0743     0.9587     0.160354
H3B      H      0.6228     0.1364     0.9058     0.158948
H3C      H      0.6039     0.0525     0.8724     0.164264
N1       N      0.46832    0.18278    0.90973   -0.377114
C2       C      0.39914    0.8125     0.13149   -0.113696
H2       H      0.3589     0.7766     0.1223     0.142988
H3A      H      0.5798     0.9257     0.0413     0.160729
H3B      H      0.6228     0.8636     0.0942     0.158605
H3C      H      0.6039     0.9475     0.1276     0.164152
N1       N      0.46832    0.81722    0.09027   -0.379333
C2       C      0.8125     0.60086    0.86851   -0.112735
H2       H      0.7766     0.6411     0.8777     0.143408
N1       N      0.81722    0.53168    0.90973   -0.381168
C2       C      0.60086    0.1875     0.13149   -0.111411
H2       H      0.6411     0.2234     0.1223     0.143092
H3A      H      0.4202     0.0743     0.0413     0.160081
H3B      H      0.3772     0.1364     0.0942     0.158654
H3C      H      0.3961     0.0525     0.1276     0.164501
N1       N      0.53168    0.18278    0.09027   -0.377467
C2       C      0.1875     0.39914    0.86851   -0.111314
H2       H      0.2234     0.3589     0.8777     0.143547
H3A      H      0.0743     0.5798     0.9587     0.160288
H3B      H      0.1364     0.6228     0.9058     0.158765
H3C      H      0.0525     0.6039     0.8724     0.16436
N1       N      0.18278    0.46832    0.90973   -0.380969
C2       C      0.60086    0.8125     0.86851   -0.112727
H2       H      0.6411     0.7766     0.8777     0.143228
N1       N      0.53168    0.81722    0.90973   -0.377167
C2       C      0.8125     0.39914    0.13149   -0.112764
H2       H      0.7766     0.3589     0.1223     0.143642
N1       N      0.81722    0.46832    0.09027   -0.380687
C2       C      0.1875     0.60086    0.13149   -0.112049
H2       H      0.2234     0.6411     0.1223     0.143622
N1       N      0.18278    0.53168    0.09027   -0.37892


