data_ZIF-90

_audit_creation_method RASPA-1.0
_audit_creation_date 2011-8-29
_audit_author_name 'David Dubbeldam'

_citation_author_name        'W. Morris, C.J. Doonan, H. Furukawa, R. Banerjee, and O.M. Yaghi'
_citation_title              'Crystals as molecules: Postsynthesis covalent functionalization of zeolitic imidazolate frameworks'
_citation_journal_abbrev     'J. Am. Chem. Soc.'
_citation_journal_volume     130
_citation_journal_number     38
_citation_page_first         12626
_citation_page_last          12627
_citation_year               2008

_cell_length_a    17.2715
_cell_length_b    17.2715
_cell_length_c    17.2715
_cell_angle_alpha 90
_cell_angle_beta  90
_cell_angle_gamma 90
_cell_volume      5152.17

_symmetry_cell_setting          triclinic
_symmetry_space_group_name_Hall 'P 1'
_symmetry_space_group_name_H-M  'P 1'
_symmetry_Int_Tables_number     1

_symmetry_equiv_pos_as_xyz 'x,y,z'

loop_
_atom_site_label
_atom_site_type_symbol
_atom_site_fract_x
_atom_site_fract_y
_atom_site_fract_z
_atom_site_charge
N1       N      0.9143       0.4677       0.1845      -0.327759
H2       H      0.93         0.59         0.105        0.10741
O1       O      0.8856       0.6129       0.0514      -0.402289
C2       C      0.8603       0.4063       0.1898      -0.144581
H1       H      0.8627       0.368        0.2292       0.155889
N1       N      0.4143       0.9677       0.6845      -0.271694
C2       C      0.3603       0.9063       0.6898      -0.133521
H1       H      0.3627       0.868        0.7292       0.158041
N1       N      0.0857       0.5323       0.1845      -0.318166
H2       H      0.07         0.41         0.105        0.107254
O1       O      0.1144       0.3871       0.0514      -0.405447
C2       C      0.1397       0.5937       0.1898      -0.136249
H1       H      0.1373       0.632        0.2292       0.155219
N1       N      0.5857       0.0323       0.6845      -0.27139
C2       C      0.6397       0.0937       0.6898      -0.142185
H1       H      0.6373       0.132        0.7292       0.159065
N1       N      0.0857       0.4677       0.8155      -0.27708
C2       C      0.1397       0.4063       0.8102      -0.135916
H1       H      0.1373       0.368        0.7708       0.154067
N1       N      0.5857       0.9677       0.3155      -0.305661
C2       C      0.6397       0.9063       0.3102      -0.15153
H1       H      0.6373       0.868        0.2708       0.155008
N1       N      0.9143       0.5323       0.8155      -0.277051
C2       C      0.8603       0.5937       0.8102      -0.133255
H1       H      0.8627       0.632        0.7708       0.155732
N1       N      0.4143       0.0323       0.3155      -0.30403
H2       H      0.43         0.91         0.395        0.105299
O1       O      0.3856       0.8871       0.4486      -0.406374
C2       C      0.3603       0.0937       0.3102      -0.126032
H1       H      0.3627       0.132        0.2708       0.158318
N1       N      0.1845       0.9143       0.4677      -0.320942
H2       H      0.105        0.93         0.59         0.106969
O1       O      0.0514       0.8856       0.6129      -0.415501
C2       C      0.1898       0.8603       0.4063      -0.133484
H1       H      0.2292       0.8627       0.368        0.153466
N1       N      0.6845       0.4143       0.9677      -0.315337
C2       C      0.6898       0.3603       0.9063      -0.155956
H1       H      0.7292       0.3627       0.868        0.158626
N1       N      0.1845       0.0857       0.5323      -0.320986
H2       H      0.105        0.07         0.41         0.106606
O1       O      0.0514       0.1144       0.3871      -0.422316
C2       C      0.1898       0.1397       0.5937      -0.13109
H1       H      0.2292       0.1373       0.632        0.160527
N1       N      0.6845       0.5857       0.0323      -0.283131
H2       H      0.605        0.57         0.91         0.10864
O1       O      0.5514       0.6144       0.8871      -0.430945
C2       C      0.6898       0.6397       0.0937      -0.127512
H1       H      0.7292       0.6373       0.132        0.152933
N1       N      0.8155       0.0857       0.4677      -0.311702
C2       C      0.8102       0.1397       0.4063      -0.162798
H1       H      0.7708       0.1373       0.368        0.154002
N1       N      0.3155       0.5857       0.9677      -0.309248
C2       C      0.3102       0.6397       0.9063      -0.148192
H1       H      0.2708       0.6373       0.868        0.159526
N1       N      0.8155       0.9143       0.5323      -0.31078
H2       H      0.895        0.93         0.41         0.105751
O1       O      0.9486       0.8856       0.3871      -0.437211
C2       C      0.8102       0.8603       0.5937      -0.132658
H1       H      0.7708       0.8627       0.632        0.159051
N1       N      0.3155       0.4143       0.0323      -0.291921
H2       H      0.395        0.43         0.91         0.106263
O1       O      0.4486       0.3856       0.8871      -0.43141
C2       C      0.3102       0.3603       0.0937      -0.128479
H1       H      0.2708       0.3627       0.132        0.153661
N1       N      0.4677       0.1845       0.9143      -0.283351
H2       H      0.59362      0.07348      0.89099      0.107069
C2       C      0.4063       0.1898       0.8603      -0.140857
H1       H      0.368        0.2292       0.8627       0.157467
N1       N      0.9677       0.6845       0.4143      -0.306423
H2       H      0.09         0.605        0.43         0.109338
O1       O      0.1129       0.5514       0.3856      -0.418793
C2       C      0.9063       0.6898       0.3603      -0.127195
H1       H      0.868        0.7292       0.3627       0.154845
N1       N      0.5323       0.1845       0.0857      -0.266533
C2       C      0.5937       0.1898       0.1397      -0.144074
H1       H      0.632        0.2292       0.1373       0.155439
N1       N      0.0323       0.6845       0.5857      -0.332436
H2       H      0.91         0.605        0.57         0.104111
O1       O      0.8871       0.5514       0.6144      -0.426923
C2       C      0.0937       0.6898       0.6397      -0.136067
H1       H      0.132        0.7292       0.6373       0.155943
N1       N      0.4677       0.8155       0.0857      -0.29611
C2       C      0.4063       0.8102       0.1397      -0.147161
H1       H      0.368        0.7708       0.1373       0.15548
N1       N      0.9677       0.3155       0.5857      -0.320584
H2       H      0.09         0.395        0.57         0.104263
O1       O      0.1129       0.4486       0.6144      -0.433318
C2       C      0.9063       0.3102       0.6397      -0.141444
H1       H      0.868        0.2708       0.6373       0.153844
N1       N      0.5323       0.8155       0.9143      -0.30139
H2       H      0.41         0.895        0.93         0.103358
O1       O      0.3871       0.9486       0.8856      -0.422873
C2       C      0.5937       0.8102       0.8603      -0.123724
H1       H      0.632        0.7708       0.8627       0.157935
N1       N      0.0323       0.3155       0.4143      -0.301858
C2       C      0.0937       0.3102       0.3603      -0.147108
H1       H      0.132        0.2708       0.3627       0.154729
N1       N      0.4677       0.9143       0.1845      -0.32618
H2       H      0.59         0.93         0.105        0.107815
O1       O      0.6129       0.8856       0.0514      -0.401572
C2       C      0.4063       0.8603       0.1898      -0.137739
H1       H      0.368        0.8627       0.2292       0.154077
N1       N      0.9677       0.4143       0.6845      -0.27244
C2       C      0.9063       0.3603       0.6898      -0.13019
H1       H      0.868        0.3627       0.7292       0.156934
N1       N      0.5323       0.0857       0.1845      -0.335918
H2       H      0.41         0.07         0.105        0.104558
O1       O      0.3871       0.1144       0.0514      -0.408943
C2       C      0.5937       0.1397       0.1898      -0.135624
H1       H      0.632        0.1373       0.2292       0.153138
N1       N      0.0323       0.5857       0.6845      -0.264287
C2       C      0.0937       0.6397       0.6898      -0.134701
H1       H      0.132        0.6373       0.7292       0.155757
N1       N      0.4677       0.0857       0.8155      -0.30034
O1       O      0.6129       0.1144       0.9486      -0.455418
C2       C      0.4063       0.1397       0.8102      -0.130218
H1       H      0.368        0.1373       0.7708       0.154846
N1       N      0.9677       0.5857       0.3155      -0.30615
C2       C      0.9063       0.6397       0.3102      -0.156764
H1       H      0.868        0.6373       0.2708       0.155994
N1       N      0.5323       0.9143       0.8155      -0.297953
C2       C      0.5937       0.8603       0.8102      -0.147912
H1       H      0.632        0.8627       0.7708       0.15751
N1       N      0.0323       0.4143       0.3155      -0.302496
H2       H      0.91         0.43         0.395        0.107084
O1       O      0.8871       0.3856       0.4486      -0.413168
C2       C      0.0937       0.3603       0.3102      -0.133064
H1       H      0.132        0.3627       0.2708       0.157838
N1       N      0.9143       0.1845       0.4677      -0.287161
H2       H      0.93         0.105        0.59         0.106375
O1       O      0.8856       0.0514       0.6129      -0.419297
C2       C      0.8603       0.1898       0.4063      -0.118429
H1       H      0.8627       0.2292       0.368        0.155283
N1       N      0.4143       0.6845       0.9677      -0.304411
H2       H      0.43         0.605        0.09         0.10555
O1       O      0.3856       0.5514       0.1129      -0.422931
C2       C      0.3603       0.6898       0.9063      -0.127681
H1       H      0.3627       0.7292       0.868        0.157681
N1       N      0.0857       0.1845       0.5323      -0.301585
C2       C      0.1397       0.1898       0.5937      -0.143468
H1       H      0.1373       0.2292       0.632        0.160561
N1       N      0.5857       0.6845       0.0323      -0.307612
C2       C      0.6397       0.6898       0.0937      -0.155107
H1       H      0.6373       0.7292       0.132        0.151355
N1       N      0.0857       0.8155       0.4677      -0.27586
C2       C      0.1397       0.8102       0.4063      -0.149772
H1       H      0.1373       0.7708       0.368        0.153535
N1       N      0.5857       0.3155       0.9677      -0.289112
H2       H      0.57         0.395        0.09         0.105797
O1       O      0.6144       0.4486       0.1129      -0.439719
C2       C      0.6397       0.3102       0.9063      -0.116716
H1       H      0.6373       0.2708       0.868        0.157971
N1       N      0.9143       0.8155       0.5323      -0.288053
C2       C      0.8603       0.8102       0.5937      -0.141034
H1       H      0.8627       0.7708       0.632        0.161249
N1       N      0.4143       0.3155       0.0323      -0.301728
C2       C      0.3603       0.3102       0.0937      -0.149521
H1       H      0.3627       0.2708       0.132        0.154141
N1       N      0.1845       0.4677       0.9143      -0.315704
H2       H      0.105        0.59         0.93         0.104405
O1       O      0.0514       0.6129       0.8856      -0.42973
C2       C      0.1898       0.4063       0.8603      -0.136339
H1       H      0.2292       0.368        0.8627       0.156971
N1       N      0.6845       0.9677       0.4143      -0.311598
H2       H      0.605        0.09         0.43         0.109977
O1       O      0.5514       0.1129       0.3856      -0.415756
C2       C      0.6898       0.9063       0.3603      -0.133237
H1       H      0.7292       0.868        0.3627       0.156372
N1       N      0.1845       0.5323       0.0857      -0.286646
C2       C      0.1898       0.5937       0.1397      -0.148254
H1       H      0.2292       0.632        0.1373       0.154162
N1       N      0.6845       0.0323       0.5857      -0.330462
H2       H      0.605        0.91         0.57         0.103567
O1       O      0.5514       0.8871       0.6144      -0.421566
C2       C      0.6898       0.0937       0.6397      -0.130925
H1       H      0.7292       0.132        0.6373       0.157569
N1       N      0.8155       0.4677       0.0857      -0.287162
C2       C      0.8102       0.4063       0.1397      -0.138377
H1       H      0.7708       0.368        0.1373       0.157222
N1       N      0.3155       0.9677       0.5857      -0.317432
H2       H      0.395        0.09         0.57         0.104175
O1       O      0.4486       0.1129       0.6144      -0.430496
C2       C      0.3102       0.9063       0.6397      -0.140989
H1       H      0.2708       0.868        0.6373       0.156362
N1       N      0.8155       0.5323       0.9143      -0.316369
H2       H      0.895        0.41         0.93         0.104621
O1       O      0.9486       0.3871       0.8856      -0.431908
C2       C      0.8102       0.5937       0.8603      -0.138259
H1       H      0.7708       0.632        0.8627       0.155716
N1       N      0.3155       0.0323       0.4143      -0.30562
C2       C      0.3102       0.0937       0.3603      -0.155253
H1       H      0.2708       0.132        0.3627       0.156527
Zn1      Zn     0            0.5          0.25         0.869399
Zn1      Zn     0            0.5          0.75         0.868149
Zn1      Zn     0.25         0            0.5          0.869284
Zn1      Zn     0.75         0            0.5          0.869367
Zn1      Zn     0.5          0.25         0            0.869173
Zn1      Zn     0.5          0.75         0            0.868182
Zn1      Zn     0.5          0            0.25         0.867658
Zn1      Zn     0.5          0            0.75         0.869644
Zn1      Zn     0            0.25         0.5          0.868226
Zn1      Zn     0            0.75         0.5          0.868941
Zn1      Zn     0.25         0.5          0            0.869382
Zn1      Zn     0.75         0.5          0            0.869514
C1       C      0.8747       0.4867       0.1253       0.152179
C3       C      0.8974       0.5674       0.1026       0.285006
C1       C      0.3747       0.9867       0.6253       0.153283
C3       C      0.3974       0.0674       0.6026       0.294797
C1       C      0.1253       0.5133       0.1253       0.146148
C3       C      0.1026       0.4326       0.1026       0.292223
C1       C      0.6253       0.0133       0.6253       0.153226
C3       C      0.6026       0.9326       0.6026       0.291254
C1       C      0.1253       0.4867       0.8747       0.160152
C3       C      0.1026       0.5674       0.8974       0.29236
C1       C      0.6253       0.9867       0.3747       0.153126
C3       C      0.6026       0.0674       0.3974       0.297517
C1       C      0.8747       0.5133       0.8747       0.160343
C3       C      0.8974       0.4326       0.8974       0.294461
C1       C      0.3747       0.0133       0.3747       0.157779
C3       C      0.3974       0.9326       0.3974       0.280641
C1       C      0.1253       0.8747       0.4867       0.150845
C3       C      0.1026       0.8974       0.5674       0.29531
C1       C      0.6253       0.3747       0.9867       0.156196
C3       C      0.6026       0.3974       0.0674       0.303605
C1       C      0.1253       0.1253       0.5133       0.155699
C3       C      0.1026       0.1026       0.4326       0.29367
C1       C      0.6253       0.6253       0.0133       0.148313
C3       C      0.6026       0.6026       0.9326       0.309918
C1       C      0.8747       0.1253       0.4867       0.151715
C3       C      0.8974       0.1026       0.5674       0.297134
C1       C      0.3747       0.6253       0.9867       0.161999
C3       C      0.3974       0.6026       0.0674       0.289691
C1       C      0.8747       0.8747       0.5133       0.158028
C3       C      0.8974       0.8974       0.4326       0.293474
C1       C      0.3747       0.3747       0.0133       0.150553
C3       C      0.3974       0.3974       0.9326       0.307159
C1       C      0.4867       0.1253       0.8747       0.153589
C3       C      0.5674       0.1026       0.8974       0.312513
C1       C      0.9867       0.6253       0.3747       0.150706
C3       C      0.0674       0.6026       0.3974       0.300838
C1       C      0.5133       0.1253       0.1253       0.1582
C3       C      0.4326       0.1026       0.1026       0.285982
C1       C      0.0133       0.6253       0.6253       0.153434
C3       C      0.9326       0.6026       0.6026       0.297225
C1       C      0.4867       0.8747       0.1253       0.159354
C3       C      0.5674       0.8974       0.1026       0.286441
C1       C      0.9867       0.3747       0.6253       0.160245
C3       C      0.0674       0.3974       0.6026       0.296389
C1       C      0.5133       0.8747       0.8747       0.152587
C3       C      0.4326       0.8974       0.8974       0.293615
C1       C      0.0133       0.3747       0.3747       0.154706
C3       C      0.9326       0.3974       0.3974       0.288006

