data_JUC-596_hea_net_exp

_audit_creation_method RASPA-1.0
_audit_creation_date 2022-6-20
_audit_author_name ''

_citation_author_name        'Chengyang Yu, Hui Li, Yujie Wang, et al.,''
_citation_title              'Three-Dimensional Triptycene-Functionalized Covalent Organic Frameworks with hea Net for Hydrogen Adsorption'
_citation_journal_abbrev     'Angew. Chem. Int.'
_citation_journal_volume     0000
_citation_page_first         e202117101
_citation_page_last          e202117106
_citation_year               2022

_cell_length_a    54.1841
_cell_length_b    54.1841
_cell_length_c    49.0914
_cell_angle_alpha 90
_cell_angle_beta  90
_cell_angle_gamma 120
_cell_volume      124819

_symmetry_cell_setting          trigonal
_symmetry_space_group_name_Hall 'R 3 2"'
_symmetry_space_group_name_H-M  'R 3 2'
_symmetry_Int_Tables_number     155

loop_
_symmetry_equiv_pos_as_xyz
 'x,y,z'
 '-y,x-y,z'
 '-x+y,-x,z'
 'y,x,-z'
 'x-y,-y,-z'
 '-x,-x+y,-z'
 'x+2/3,y+1/3,z+1/3'
 '-y+2/3,x-y+1/3,z+1/3'
 '-x+y+2/3,-x+1/3,z+1/3'
 'y+2/3,x+1/3,-z+1/3'
 'x-y+2/3,-y+1/3,-z+1/3'
 '-x+2/3,-x+y+1/3,-z+1/3'
 'x+1/3,y+2/3,z+2/3'
 '-y+1/3,x-y+2/3,z+2/3'
 '-x+y+1/3,-x+2/3,z+2/3'
 'y+1/3,x+2/3,-z+2/3'
 'x-y+1/3,-y+2/3,-z+2/3'
 '-x+1/3,-x+y+2/3,-z+2/3'

loop_
_atom_site_label
_atom_site_type_symbol
_atom_site_fract_x
_atom_site_fract_y
_atom_site_fract_z
_atom_site_charge
C1       C      0.330860000000     0.639760000000     0.387780000000     0.0167351
C2       C      0.328720000000     0.616410000000     0.373680000000    -0.0568615
C3       C      0.326670000000     0.593130000000     0.388420000000    -0.000540612
C4       C      0.345780000000     0.570370000000     0.357240000000    -0.0432507
C5       C      0.323460000000     0.568070000000     0.373490000000     0.0135628
C6       C      0.299350000000     0.541240000000     0.377850000000    -0.0383144
C7       C      0.298330000000     0.516760000000     0.367490000000    -0.0371034
C8       C      0.321520000000     0.518790000000     0.352900000000     0.00920881
C9       C      0.344940000000     0.545850000000     0.347160000000    -0.0309495
C10      C      0.321980000000     0.492520000000     0.346210000000     0.0263522
C11      C      0.375520000000     0.474510000000     0.324350000000    -0.222291
C12      C      0.350230000000     0.469840000000     0.336620000000     0.158711
C13      C      0.331490000000     0.442830000000     0.347710000000    -0.130832
C14      C      0.338130000000     0.421060000000     0.346450000000     0.0583114
C15      C      0.363590000000     0.425820000000     0.334290000000    -0.151407
C16      C      0.382220000000     0.452750000000     0.323040000000     0.380203
C17      C      0.385070000000     0.359120000000     0.333640000000     0.00916744
C18      C      0.356890000000     0.424910000000     0.626180000000    -0.0232546
C19      C      0.332550000000     0.407280000000     0.642020000000     0.0120108
C20      C      0.307460000000     0.408320000000     0.636840000000    -0.0200848
C21      C      0.306020000000     0.424440000000     0.615420000000    -0.0532799
C22      C      0.329960000000     0.440940000000     0.599090000000     0.104091
C23      C      0.355430000000     0.441110000000     0.604740000000    -0.0686171
C24      C      0.315800000000     0.475110000000     0.580020000000     0.382841
C25      C      0.328390000000     0.458070000000     0.576340000000    -0.148665
C26      C      0.339220000000     0.457190000000     0.550570000000     0.0590954
C27      C      0.337380000000     0.472870000000     0.528830000000    -0.129507
C28      C      0.324800000000     0.489910000000     0.532610000000     0.160838
C29      C      0.313930000000     0.490670000000     0.558250000000    -0.220891
C30      C      0.335870000000     0.513370000000     0.488090000000     0.0273745
C31      C      0.327890000000     0.571110000000     0.433910000000     0.0135491
C32      C      0.327440000000     0.593810000000     0.417440000000     0.00173184
C33      C      0.329220000000     0.617290000000     0.431320000000    -0.058752
C34      C      0.330880000000     0.639950000000     0.416660000000     0.0205029
C35      C      0.308460000000     0.558330000000     0.455360000000    -0.0416843
C36      C      0.310480000000     0.538960000000     0.472650000000    -0.0303571
C37      C      0.332010000000     0.532020000000     0.468760000000     0.0104171
C38      C      0.349020000000     0.563720000000     0.429640000000    -0.0369971
C39      C      0.350890000000     0.544140000000     0.446800000000    -0.0369354
C40      C      0.365230000000     0.374370000000     0.642640000000    -0.0232509
C41      C      0.387020000000     0.367750000000     0.642360000000    -0.0728129
C42      C      0.402840000000     0.370800000000     0.666000000000     0.102613
C43      C      0.396080000000     0.380050000000     0.690040000000    -0.0562634
C44      C      0.374290000000     0.386670000000     0.690360000000    -0.0245218
C45      C      0.333330000000     0.389930000000     0.666660000000    -0.026872
C46      C      0.333330000000     0.666660000000     0.958410000000    -0.0612855
C47      C      0.333330000000     0.666660000000     0.903990000000    -0.0646973
N1       N      0.345770000000     0.493680000000     0.339670000000    -0.135034
N2       N      0.322340000000     0.506600000000     0.511180000000    -0.133976
F1       F      0.407440000000     0.458440000000     0.311870000000    -0.458915
F2       F      0.504700000000     0.360710000000     0.271470000000    -0.451142
H1       H      0.328380000000     0.616190000000     0.351620000000     0.0471541
H2       H      0.364540000000     0.590970000000     0.353740000000     0.0437443
H3       H      0.281910000000     0.539190000000     0.390300000000     0.0445472
H4       H      0.280060000000     0.496140000000     0.372090000000     0.041221
H5       H      0.363030000000     0.548000000000     0.335770000000     0.0501803
H6       H      0.302630000000     0.472290000000     0.348970000000     0.0252648
H7       H      0.390390000000     0.495350000000     0.316240000000     0.125664
H8       H      0.312180000000     0.438500000000     0.358140000000     0.0661485
H9       H      0.323420000000     0.400490000000     0.355200000000     0.01704
H10      H      0.377310000000     0.426790000000     0.630530000000     0.0457065
H11      H      0.288690000000     0.396240000000     0.649320000000     0.0513395
H12      H      0.286060000000     0.423840000000     0.611510000000     0.0861033
H13      H      0.374430000000     0.454310000000     0.592890000000     0.0586521
H14      H      0.348690000000     0.443950000000     0.547150000000     0.0183253
H15      H      0.345400000000     0.471130000000     0.509200000000     0.0672021
H16      H      0.304240000000     0.503750000000     0.561410000000     0.12945
H17      H      0.351520000000     0.507150000000     0.483450000000     0.0263219
H18      H      0.329990000000     0.618240000000     0.453370000000     0.0492667
H19      H      0.292020000000     0.563750000000     0.459000000000     0.0446291
H20      H      0.295490000000     0.529810000000     0.489320000000     0.0521163
H21      H      0.364600000000     0.573760000000     0.413570000000     0.0454692
H22      H      0.367700000000     0.539170000000     0.443450000000     0.0429315
H23      H      0.353000000000     0.371100000000     0.624200000000     0.0386865
H24      H      0.391550000000     0.360240000000     0.623600000000     0.0544433
H25      H      0.407190000000     0.381430000000     0.708830000000     0.0793912
H26      H      0.368970000000     0.392270000000     0.709750000000     0.0430347
H27      H      0.333330000000     0.666660000000     0.981050000000     0.0447673
H28      H      0.333330000000     0.666660000000     0.881340000000     0.0469399


