
data_graphite_tmpXA

_audit_creation_method RASPA-1.0
_audit_creation_date 2022-6-6
_audit_author_name 'By Student'

_citation_author_name        'by student'
_citation_title              'graphite'
_citation_journal_abbrev     'carbon'
_citation_journal_volume     0000
_citation_journal_number     0000
_citation_page_first         e202117101
_citation_page_last          e202117106
_citation_year               2022

_cell_length_a                         4.93545
_cell_length_b                         4.27422
_cell_length_c                         C.CCCCC
_cell_angle_alpha                      90
_cell_angle_beta                       90
_cell_angle_gamma                      90

_symmetry_cell_setting                 Triclinic
_symmetry_space_group_name_Hall        'P 1'
_symmetry_space_group_name_H-M         'P 1'
_symmetry_Int_Tables_number            1

loop_
_space_group_symop_operation_xyz
   'x, y, z'

loop_
_atom_site_label
_atom_site_type_symbol
_atom_site_fract_x
_atom_site_fract_y
_atom_site_fract_z
_atom_site_charge
C1     C     0.0000000     0.0000000     0.0000000     0.0
C2     C    -0.2500000     0.5000000     0.0000000     0.0
C3     C     0.5000000     0.0000000     0.0000000     0.0
C4     C     0.2500000     0.5000000     0.0000000     0.0
C5     C     0.2500000     0.1666670     0.0000000     0.0
C6     C     0.0000000     0.6666670     0.0000000     0.0
C7     C     0.7500000     0.1666670     0.0000000     0.0
C8     C     0.5000000     0.6666670     0.0000000     0.0

